source /home/avar/.screenrc

sessionname local

screen -t t bash
stuff "htop^M"

screen -t m:exim:l bash
stuff "tail -F /var/log/exim4/mainlog^M"

screen -t m:exim:q bash
# Shows the status of the exim mail queue, i.e. any stalled messages
stuff "sudo exim -bp^M"
# Forces sending of the messages, if any. See
# http://www.electrictoolbox.com/flush-exim-mail-queue/
stuff "# sudo exim -qf # send stalled messages^M"

screen -t m:md:size bash
stuff "du -sb ~/.mu ~/Maildir/work; du -sh ~/.mu ~/Maildir/work; find ~/Maildir/work/ -type f | wc -l; df -h /^M"

screen -t m:md:find bash
stuff "find ~/Maildir -type f -mmin -5|wc -l # modified in the last 5mins^M"
stuff "find ~/Maildir -type f -cmin -5|wc -l # created in the last 5mins^M"

screen -t m:sync bash
stuff "time mbsync work"

screen -t m:index bash
stuff "time mu index --maildir=~/Maildir/work"

screen -t m:f:0 bash
stuff "mu find -n 10 avar^M"

screen -t m:f:1 bash
stuff "mu find -n 10 booking^M"

select 0
