source /home/avar/.screenrc

sessionname local

screen -t htop bash
stuff "timeout 30m htop"

screen -t system:log bash
stuff "sudo tail -F /var/log/{syslog,messages,auth.log,user.log,daemon.log,aptitude,kern.log,dpkg.log}^M"

screen -t m:avar:l bash
stuff "sudo tail -F /var/mail/avar^M"

screen -t m:exim:l bash
stuff "sudo tail -F /var/log/exim4/mainlog^M"

#
# If I change my app password and start getting e.g. "error in
# smarthost router: no host(s) specified for domain gmail.com". See:
#
#     git -C /etc show 986dcc2
#
screen -t m:exim:q bash
# Shows the status of the exim mail queue, i.e. any stalled messages
stuff "sudo exim -bp^M"
# Shows a summary
stuff "sudo exim -bp | sudo exiqsumm^M"
# What's exim doing?
stuff "sudo exiwhat^M"
# Forces sending of the messages, if any. See
# http://www.electrictoolbox.com/flush-exim-mail-queue/
# http://mewbies.com/how_to_setup_exim_mail_transfer_agent_for_linux_tutorial.htm
# also: http://bradthemad.org/tech/notes/exim_cheatsheet.php
# and:  http://wikisec.free.fr/unix/exim.html
# to remove messages: https://www.cyberciti.biz/faq/exim-remove-all-messages-from-the-mail-queue/
# --> sudo exim -bp | awk '/^ *[0-9]+[mhd]/{print "sudo exim -Mrm " $3}'|sh
#
# Debug how mail from/to these addresses would be sent. When going
# through this it'll actually send mail.
stuff "# sudo exim -d -f '<avarab@gmail.com>' avarab@gmail.com^M"
# Queue manipulation
stuff "# sudo exim -qf # send stalled messages^M"
stuff "# sudo exim -qff # send stalled messages, even if frozen due to bounces^M"
stuff "# sudo exim -Mrm QUEUE-ID # remove a specific message^M"
stuff "# sudo exim -M QUEUE-ID # send a specific message^M"
# Dump info
stuff "# sudo exiqgrep -i | xargs -n 1 sudo exim -Mvh # headers^M"
stuff "# sudo exiqgrep -i | xargs -n 1 sudo exim -Mvb # body^M"
stuff "# sudo exiqgrep -i | xargs -n 1 sudo exim -Mvl # logs^M"
# Debugging. See also avar/laptop-etc@dec4154
stuff "# sudo exim -bt -d+all -f avarab@gmail.com to-this-address@example.com 2>&1 | grep gmail^M"
stuff "# sudo exim -d+all -M QUEUE-ID 2>&1 | less^M # To debug something in the queue to see how it would be sent"

# Personal GMail setup
screen -t m:mu:init+index bash
stuff "# rm -rf ~/.mu ~/.cache/mu^M"
stuff "# time mu init --my-address=avarab@gmail.com --my-address=abjarmason@gitlab.com --my-address=avar@gitlab.com^M"
stuff "# time mu index^M"
stuff "# time mu index --lazy-check --nocleanup^M"

screen -t m:md:updates bash
stuff "maildir-updates.sh^M"

screen -t m:mu:find bash
stuff "find ~/Maildir/personal-gmail -type f -mmin -5|wc -l # modified in the last 5mins^M"
stuff "find ~/Maildir/personal-gmail -type f -cmin -5|wc -l # created in the last 5mins^M"

## Sync, doing it in two processes so I get some mail faster, 7 and
## 307 are prime numbers, so hopefully it splayes things out some
## dude's load graph...
##
## Debug with: -Dm, -Dms, -DmsnN or "--debug --verbose"
screen -t m:s:pu:common bash
stuff "mbsync-push-pull.sh personal-common^M"

screen -t m:s:pu:rest bash
stuff "mbsync-push-pull.sh personal-rest^M"

# mu
screen -t m:monitor bash
stuff "# while sleep 1; do time sudo perl ~/g/dotemacs/scripts/mu-monitor.pl; done^M"

screen -t m:mu:pg:0 bash
stuff "mu find 'maildir:/personal-gmail/*' -n 10 from:avarab@gmail.com^M"

screen -t m:mu:pg:1 bash
stuff "mu find 'maildir:/personal-gmail/*' -n 10 from:avarab@gmail.com^M"

screen -t m:mu:gg:0 bash
stuff "mu find 'maildir:/gitlab-gmail/*' -n 10 from:avarab@gmail.com^M"

screen -t m:mu:gg:1 bash
stuff "mu find 'maildir:/gitlab-gmail/*' -n 10 from:avarab@gmail.com^M"

# public-inbox
screen -t pu:git-ml:idx bash
## Get the mailing list as a .git, without the sharded format
## https://lore.kernel.org/git/ uses
stuff "cd ~/g/git-ml || git clone https://public-inbox.org/git ~/g/git-ml^M"
## This will create a .git/publici-inbox in ~/g/git-ml. Takes a while
## the first time.
stuff "time public-inbox-index -v \$PWD^M"
## When we add the lei external it *must* have the ".git" part,
## because it'll try to find the "public-inbox" folder at wherever we
## point it.
stuff "test -d ~/.config/lei || lei add-external ~/g/git-ml/.git^M"
## The one-off massive import of the Git ML. TODO: No way to specify
## an infinite limit? Not --no-limit or --limit=0.
stuff "test -d ~/Maildir/lei-q-git-ml || time lei q --limit=999999999 -v -o ~/Maildir/lei-q-git-ml l:git.vger.kernel.org^M"
## After the one-off import this will take forever *the first time*
## (or around 20m), but subsequent invocations will be fast:
stuff "time lei up ~/Maildir/lei-q-git-ml^M"
## Run it in a loop
stuff "while sleep 47; do git -C ~/g/git-ml pull && (cd ~/g/git-ml && time public-inbox-index -v \"\$PWD\") && time lei up ~/Maildir/lei-q-git-ml; done^M"

screen -t pu:git-ml:update bash
stuff "sleep 1^M"
stuff "cd ~/g/git-ml^M"

# logs
screen -t investigate bash
stuff "ip route list^M"
stuff "ip route get 10.252.13.1^M"
stuff "ip route get 8.8.8.8^M"

# The system:log screen
select 1
