source /home/avar/.screenrc

sessionname local

screen -t htop bash
stuff "timeout 30m htop"

screen -t system:log bash
stuff "tail -F /var/log/{syslog,messages,auth.log,user.log,daemon.log,aptitude,kern.log,dpkg.log}^M"

screen -t m:avar:l bash
stuff "tail -F /var/mail/avar^M"

screen -t m:exim:l bash
stuff "tail -F /var/log/exim4/mainlog^M"

screen -t m:exim:q bash
# Shows the status of the exim mail queue, i.e. any stalled messages
stuff "sudo exim -bp^M"
# Shows a summary
stuff "sudo exim -bp | sudo exiqsumm^M"
# What's exim doing?
stuff "sudo exiwhat^M"
# Forces sending of the messages, if any. See
# http://www.electrictoolbox.com/flush-exim-mail-queue/
# http://mewbies.com/how_to_setup_exim_mail_transfer_agent_for_linux_tutorial.htm
# also: http://bradthemad.org/tech/notes/exim_cheatsheet.php
# and:  http://wikisec.free.fr/unix/exim.html
# to remove messages: https://www.cyberciti.biz/faq/exim-remove-all-messages-from-the-mail-queue/
# --> sudo exim -bp | awk '/^ *[0-9]+[mhd]/{print "sudo exim -Mrm " $3}'|sh
#
# Debug how mail from/to these addresses would be sent. When going
# through this it'll actually send mail.
stuff "# sudo exim -d -f '<avarab@gmail.com>' avarab@gmail.com^M"
# Queue manipulation
stuff "# sudo exim -qf # send stalled messages^M"
stuff "# sudo exim -qff # send stalled messages, even if frozen due to bounces^M"
stuff "# sudo exim -Mrm QUEUE-ID # remove a specific message^M"
stuff "# sudo exim -M QUEUE-ID # send a specific message^M"
# Dump info
stuff "# sudo exiqgrep -i | xargs sudo exim -Mvh # headers^M"
stuff "# sudo exiqgrep -i | xargs sudo exim -Mvb # body^M"
stuff "# sudo exiqgrep -i | xargs sudo exim -Mvl # logs^M"
# Debugging. See also avar/laptop-etc@dec4154
stuff "# sudo exim -bt -d+all -f avarab@gmail.com to-this-address@example.com 2>&1 | grep gmail^M"
stuff "# sudo exim -d+all -M QUEUE-ID 2>&1 | less^M # To debug something in the queue to see how it would be sent"

# Personal GMail setup
screen -t m:mu:init bash
stuff "# rm -rf ~/.mu ~/.cache/mu^M"
stuff "# time mu init --my-address=avarab@gmail.com --my-address=abjarmason@gitlab.com --my-address=avar@gitlab.com^M"
stuff "# time mu index^M"

screen -t m:mu:size bash
stuff "du -sb ~/.cache/.mu ~/Maildir; du -sh ~/.mu ~/Maildir/*; find ~/Maildir/personal-gmail/ -type f | wc -l; df -h /^M"

screen -t m:mu:find bash
stuff "find ~/Maildir/personal-gmail -type f -mmin -5|wc -l # modified in the last 5mins^M"
stuff "find ~/Maildir/personal-gmail -type f -cmin -5|wc -l # created in the last 5mins^M"

screen -t m:oi:sync:<> bash
stuff "sleep 10^M"
# debug: -d imap,maildir
stuff "while true; do time offlineimap -a PersonalGMail,GitLabGMail -c ~/.offlineimaprc ; sleep 60; done^M"

# mu
screen -t m:monitor bash
stuff "# while sleep 1; do time sudo perl ~/g/dotemacs/scripts/mu-monitor.pl; done^M"

screen -t m:mu:pg:0 bash
stuff "mu find 'maildir:/personal-gmail/*' -n 10 avar^M"

screen -t m:mu:pg:1 bash
stuff "mu find 'maildir:/personal-gmail/*' -n 10 avar^M"

screen -t m:mu:gg:0 bash
stuff "mu find 'maildir:/gitlab-gmail/*' -n 10 avar^M"

screen -t m:mu:gg:1 bash
stuff "mu find 'maildir:/gitlab-gmail/*' -n 10 avar^M"

# logs
screen -t s:daemon-nm-dis:l bash
stuff "tail -f /var/log/daemon.log | grep nm-dispatcher^M"

screen -t s:squid:l bash
stuff "sudo tail -F /var/log/squid{,3,4}/*.log^M"

screen -t openvpn.log bash
stuff "tail -f /var/log/syslog /var/log/daemon.log | grep openvpn^M"

screen -t nm-dispatcher.log bash
stuff "tail -f /var/log/syslog /var/log/daemon.log | grep nm-dispatcher^M"

screen -t tcpflow:openvpn bash
stuff "sudo tcpflow -i wlan0 -c port 1194"

screen -t investigate bash
stuff "ip route list^M"
stuff "ip route get 10.252.13.1^M"
stuff "ip route get 8.8.8.8^M"

# The system:log screen
select 1
